V -t * -v 1.0a5 -a 0
W -t * -x 30.00 -y 30.00
n -t * -s 1 -x 0.00 -y 0.00 -z 5 -v circle -c black -w
n -t * -s 2 -x 0.00 -y 10.00 -z 5 -v circle -c black -w
n -t 0.50 -s 1 -x 0.00 -y 0.00
n -t 0.50 -s 2 -x 0.25 -y 10.00
n -t 1.00 -s 1 -x 0.00 -y 0.00
n -t 1.00 -s 2 -x 0.50 -y 10.00
n -t 1.50 -s 1 -x 0.00 -y 0.00
n -t 1.50 -s 2 -x 0.75 -y 10.00
n -t 2.00 -s 1 -x 0.00 -y 0.00
n -t 2.00 -s 2 -x 1.00 -y 10.00
n -t 2.50 -s 1 -x 0.00 -y 0.00
n -t 2.50 -s 2 -x 1.25 -y 10.00
n -t 3.00 -s 1 -x 0.00 -y 0.00
n -t 3.00 -s 2 -x 1.50 -y 10.00
n -t 3.50 -s 1 -x 0.00 -y 0.00
n -t 3.50 -s 2 -x 1.75 -y 10.00
n -t 4.00 -s 1 -x 0.00 -y 0.00
n -t 4.00 -s 2 -x 2.00 -y 10.00
n -t 4.50 -s 1 -x 0.00 -y 0.00
n -t 4.50 -s 2 -x 2.25 -y 10.00
n -t 5.00 -s 1 -x 0.00 -y 0.00
n -t 5.00 -s 2 -x 2.50 -y 10.00
n -t 5.50 -s 1 -x 0.00 -y 0.00
n -t 5.50 -s 2 -x 2.75 -y 10.00
n -t 6.00 -s 1 -x 0.00 -y 0.00
n -t 6.00 -s 2 -x 3.00 -y 10.00
n -t 6.50 -s 1 -x 0.00 -y 0.00
n -t 6.50 -s 2 -x 3.25 -y 10.00
n -t 7.00 -s 1 -x 0.00 -y 0.00
n -t 7.00 -s 2 -x 3.50 -y 10.00
n -t 7.50 -s 1 -x 0.00 -y 0.00
n -t 7.50 -s 2 -x 3.75 -y 10.00
n -t 8.00 -s 1 -x 0.00 -y 0.00
n -t 8.00 -s 2 -x 4.00 -y 10.00
n -t 8.50 -s 1 -x 0.00 -y 0.00
n -t 8.50 -s 2 -x 4.25 -y 10.00
n -t 9.00 -s 1 -x 0.00 -y 0.00
n -t 9.00 -s 2 -x 4.50 -y 10.00
n -t 9.50 -s 1 -x 0.00 -y 0.00
n -t 9.50 -s 2 -x 4.75 -y 10.00
n -t 10.00 -s 1 -x 0.00 -y 0.00
n -t 10.00 -s 2 -x 5.00 -y 10.00
n -t 10.50 -s 1 -x 0.00 -y 0.00
n -t 10.50 -s 2 -x 5.25 -y 10.00
n -t 11.00 -s 1 -x 0.00 -y 0.00
n -t 11.00 -s 2 -x 5.50 -y 10.00
n -t 11.50 -s 1 -x 0.00 -y 0.00
n -t 11.50 -s 2 -x 5.75 -y 10.00
n -t 12.00 -s 1 -x 0.00 -y 0.00
n -t 12.00 -s 2 -x 6.00 -y 10.00
n -t 12.50 -s 1 -x 0.00 -y 0.00
n -t 12.50 -s 2 -x 6.25 -y 10.00
n -t 13.00 -s 1 -x 0.00 -y 0.00
n -t 13.00 -s 2 -x 6.50 -y 10.00
n -t 13.50 -s 1 -x 0.00 -y 0.00
n -t 13.50 -s 2 -x 6.75 -y 10.00
n -t 14.00 -s 1 -x 0.00 -y 0.00
n -t 14.00 -s 2 -x 7.00 -y 10.00
n -t 14.50 -s 1 -x 0.00 -y 0.00
n -t 14.50 -s 2 -x 7.25 -y 10.00
n -t 15.00 -s 1 -x 0.00 -y 0.00
n -t 15.00 -s 2 -x 7.50 -y 10.00
n -t 15.50 -s 1 -x 0.00 -y 0.00
n -t 15.50 -s 2 -x 7.75 -y 10.00
n -t 16.00 -s 1 -x 0.00 -y 0.00
n -t 16.00 -s 2 -x 8.00 -y 10.00
n -t 16.50 -s 1 -x 0.00 -y 0.00
n -t 16.50 -s 2 -x 8.25 -y 10.00
n -t 17.00 -s 1 -x 0.00 -y 0.00
n -t 17.00 -s 2 -x 8.50 -y 10.00
n -t 17.50 -s 1 -x 0.00 -y 0.00
n -t 17.50 -s 2 -x 8.75 -y 10.00
n -t 18.00 -s 1 -x 0.00 -y 0.00
n -t 18.00 -s 2 -x 9.00 -y 10.00
n -t 18.50 -s 1 -x 0.00 -y 0.00
n -t 18.50 -s 2 -x 9.25 -y 10.00
n -t 19.00 -s 1 -x 0.00 -y 0.00
n -t 19.00 -s 2 -x 9.50 -y 10.00
n -t 19.50 -s 1 -x 0.00 -y 0.00
n -t 19.50 -s 2 -x 9.75 -y 10.00
n -t 20.00 -s 1 -x 0.00 -y 0.00
n -t 20.00 -s 2 -x 10.00 -y 10.00
n -t 20.50 -s 1 -x 0.00 -y 0.00
n -t 20.50 -s 2 -x 10.25 -y 10.00
n -t 21.00 -s 1 -x 0.00 -y 0.00
n -t 21.00 -s 2 -x 10.50 -y 10.00
n -t 21.50 -s 1 -x 0.00 -y 0.00
n -t 21.50 -s 2 -x 10.75 -y 10.00
n -t 22.00 -s 1 -x 0.00 -y 0.00
n -t 22.00 -s 2 -x 11.00 -y 10.00
n -t 22.50 -s 1 -x 0.00 -y 0.00
n -t 22.50 -s 2 -x 11.25 -y 10.00
n -t 23.00 -s 1 -x 0.00 -y 0.00
n -t 23.00 -s 2 -x 11.50 -y 10.00
n -t 23.50 -s 1 -x 0.00 -y 0.00
n -t 23.50 -s 2 -x 11.75 -y 10.00
n -t 24.00 -s 1 -x 0.00 -y 0.00
n -t 24.00 -s 2 -x 12.00 -y 10.00
n -t 24.50 -s 1 -x 0.00 -y 0.00
n -t 24.50 -s 2 -x 12.25 -y 10.00
n -t 25.00 -s 1 -x 0.00 -y 0.00
n -t 25.00 -s 2 -x 12.50 -y 10.00
n -t 25.50 -s 1 -x 0.00 -y 0.00
n -t 25.50 -s 2 -x 12.75 -y 10.00
n -t 26.00 -s 1 -x 0.00 -y 0.00
n -t 26.00 -s 2 -x 13.00 -y 10.00
n -t 26.50 -s 1 -x 0.00 -y 0.00
n -t 26.50 -s 2 -x 13.25 -y 10.00
n -t 27.00 -s 1 -x 0.00 -y 0.00
n -t 27.00 -s 2 -x 13.50 -y 10.00
n -t 27.50 -s 1 -x 0.00 -y 0.00
n -t 27.50 -s 2 -x 13.75 -y 10.00
n -t 28.00 -s 1 -x 0.00 -y 0.00
n -t 28.00 -s 2 -x 14.00 -y 10.00
n -t 28.50 -s 1 -x 0.00 -y 0.00
n -t 28.50 -s 2 -x 14.25 -y 10.00
n -t 29.00 -s 1 -x 0.00 -y 0.00
n -t 29.00 -s 2 -x 14.50 -y 10.00
n -t 29.50 -s 1 -x 0.00 -y 0.00
n -t 29.50 -s 2 -x 14.75 -y 10.00
n -t 30.00 -s 1 -x 0.00 -y 0.00
n -t 30.00 -s 2 -x 15.00 -y 10.00
n -t 30.50 -s 1 -x 0.00 -y 0.00
n -t 30.50 -s 2 -x 14.75 -y 10.00
n -t 31.00 -s 1 -x 0.00 -y 0.00
n -t 31.00 -s 2 -x 14.50 -y 10.00
n -t 31.50 -s 1 -x 0.00 -y 0.00
n -t 31.50 -s 2 -x 14.25 -y 10.00
n -t 32.00 -s 1 -x 0.00 -y 0.00
n -t 32.00 -s 2 -x 14.00 -y 10.00
n -t 32.50 -s 1 -x 0.00 -y 0.00
n -t 32.50 -s 2 -x 13.75 -y 10.00
n -t 33.00 -s 1 -x 0.00 -y 0.00
n -t 33.00 -s 2 -x 13.50 -y 10.00
n -t 33.50 -s 1 -x 0.00 -y 0.00
n -t 33.50 -s 2 -x 13.25 -y 10.00
n -t 34.00 -s 1 -x 0.00 -y 0.00
n -t 34.00 -s 2 -x 13.00 -y 10.00
n -t 34.50 -s 1 -x 0.00 -y 0.00
n -t 34.50 -s 2 -x 12.75 -y 10.00
n -t 35.00 -s 1 -x 0.00 -y 0.00
n -t 35.00 -s 2 -x 12.50 -y 10.00
n -t 35.50 -s 1 -x 0.00 -y 0.00
n -t 35.50 -s 2 -x 12.25 -y 10.00
n -t 36.00 -s 1 -x 0.00 -y 0.00
n -t 36.00 -s 2 -x 12.00 -y 10.00
n -t 36.50 -s 1 -x 0.00 -y 0.00
n -t 36.50 -s 2 -x 11.75 -y 10.00
n -t 37.00 -s 1 -x 0.00 -y 0.00
n -t 37.00 -s 2 -x 11.50 -y 10.00
n -t 37.50 -s 1 -x 0.00 -y 0.00
n -t 37.50 -s 2 -x 11.25 -y 10.00
n -t 38.00 -s 1 -x 0.00 -y 0.00
n -t 38.00 -s 2 -x 11.00 -y 10.00
n -t 38.50 -s 1 -x 0.00 -y 0.00
n -t 38.50 -s 2 -x 10.75 -y 10.00
n -t 39.00 -s 1 -x 0.00 -y 0.00
n -t 39.00 -s 2 -x 10.50 -y 10.00
n -t 39.50 -s 1 -x 0.00 -y 0.00
n -t 39.50 -s 2 -x 10.25 -y 10.00
n -t 40.00 -s 1 -x 0.00 -y 0.00
n -t 40.00 -s 2 -x 10.00 -y 10.00
n -t 40.50 -s 1 -x 0.00 -y 0.00
n -t 40.50 -s 2 -x 9.75 -y 10.00
n -t 41.00 -s 1 -x 0.00 -y 0.00
n -t 41.00 -s 2 -x 9.50 -y 10.00
n -t 41.50 -s 1 -x 0.00 -y 0.00
n -t 41.50 -s 2 -x 9.25 -y 10.00
n -t 42.00 -s 1 -x 0.00 -y 0.00
n -t 42.00 -s 2 -x 9.00 -y 10.00
n -t 42.50 -s 1 -x 0.00 -y 0.00
n -t 42.50 -s 2 -x 8.75 -y 10.00
n -t 43.00 -s 1 -x 0.00 -y 0.00
n -t 43.00 -s 2 -x 8.50 -y 10.00
n -t 43.50 -s 1 -x 0.00 -y 0.00
n -t 43.50 -s 2 -x 8.25 -y 10.00
n -t 44.00 -s 1 -x 0.00 -y 0.00
n -t 44.00 -s 2 -x 8.00 -y 10.00
n -t 44.50 -s 1 -x 0.00 -y 0.00
n -t 44.50 -s 2 -x 7.75 -y 10.00
n -t 45.00 -s 1 -x 0.00 -y 0.00
n -t 45.00 -s 2 -x 7.50 -y 10.00
n -t 45.50 -s 1 -x 0.00 -y 0.00
n -t 45.50 -s 2 -x 7.25 -y 10.00
n -t 46.00 -s 1 -x 0.00 -y 0.00
n -t 46.00 -s 2 -x 7.00 -y 10.00
n -t 46.50 -s 1 -x 0.00 -y 0.00
n -t 46.50 -s 2 -x 6.75 -y 10.00
n -t 47.00 -s 1 -x 0.00 -y 0.00
n -t 47.00 -s 2 -x 6.50 -y 10.00
n -t 47.50 -s 1 -x 0.00 -y 0.00
n -t 47.50 -s 2 -x 6.25 -y 10.00
n -t 48.00 -s 1 -x 0.00 -y 0.00
n -t 48.00 -s 2 -x 6.00 -y 10.00
n -t 48.50 -s 1 -x 0.00 -y 0.00
n -t 48.50 -s 2 -x 5.75 -y 10.00
n -t 49.00 -s 1 -x 0.00 -y 0.00
n -t 49.00 -s 2 -x 5.50 -y 10.00
n -t 49.50 -s 1 -x 0.00 -y 0.00
n -t 49.50 -s 2 -x 5.25 -y 10.00
n -t 50.00 -s 1 -x 0.00 -y 0.00
n -t 50.00 -s 2 -x 5.00 -y 10.00
n -t 50.50 -s 1 -x 0.00 -y 0.00
n -t 50.50 -s 2 -x 4.75 -y 10.00
n -t 51.00 -s 1 -x 0.00 -y 0.00
n -t 51.00 -s 2 -x 4.50 -y 10.00
n -t 51.50 -s 1 -x 0.00 -y 0.00
n -t 51.50 -s 2 -x 4.25 -y 10.00
n -t 52.00 -s 1 -x 0.00 -y 0.00
n -t 52.00 -s 2 -x 4.00 -y 10.00
n -t 52.50 -s 1 -x 0.00 -y 0.00
n -t 52.50 -s 2 -x 3.75 -y 10.00
n -t 53.00 -s 1 -x 0.00 -y 0.00
n -t 53.00 -s 2 -x 3.50 -y 10.00
n -t 53.50 -s 1 -x 0.00 -y 0.00
n -t 53.50 -s 2 -x 3.25 -y 10.00
n -t 54.00 -s 1 -x 0.00 -y 0.00
n -t 54.00 -s 2 -x 3.00 -y 10.00
n -t 54.50 -s 1 -x 0.00 -y 0.00
n -t 54.50 -s 2 -x 2.75 -y 10.00
n -t 55.00 -s 1 -x 0.00 -y 0.00
n -t 55.00 -s 2 -x 2.50 -y 10.00
n -t 55.50 -s 1 -x 0.00 -y 0.00
n -t 55.50 -s 2 -x 2.25 -y 10.00
n -t 56.00 -s 1 -x 0.00 -y 0.00
n -t 56.00 -s 2 -x 2.00 -y 10.00
n -t 56.50 -s 1 -x 0.00 -y 0.00
n -t 56.50 -s 2 -x 1.75 -y 10.00
n -t 57.00 -s 1 -x 0.00 -y 0.00
n -t 57.00 -s 2 -x 1.50 -y 10.00
n -t 57.50 -s 1 -x 0.00 -y 0.00
n -t 57.50 -s 2 -x 1.25 -y 10.00
n -t 58.00 -s 1 -x 0.00 -y 0.00
n -t 58.00 -s 2 -x 1.00 -y 10.00
n -t 58.50 -s 1 -x 0.00 -y 0.00
n -t 58.50 -s 2 -x 0.75 -y 10.00
n -t 59.00 -s 1 -x 0.00 -y 0.00
n -t 59.00 -s 2 -x 0.50 -y 10.00
n -t 59.50 -s 1 -x 0.00 -y 0.00
n -t 59.50 -s 2 -x 0.25 -y 10.00
n -t 60.00 -s 1 -x 0.00 -y 0.00
n -t 60.00 -s 2 -x 0.00 -y 10.00
